10
	Energy:       1.2593348
O         -3.81519       -2.79992        0.18802
C         -2.84032       -1.82150       -0.01816
C         -1.99688       -2.18273       -1.23644
C         -1.98254       -1.67629        1.23452
H         -2.62536       -1.39268        2.09406
H         -1.22308       -0.87995        1.08570
H         -1.46845       -2.63317        1.46876
H         -2.64987       -2.25864       -2.13103
H         -1.48325       -3.15578       -1.08110
H         -1.23763       -1.39378       -1.42135
