16
	Energy:     224.9809936
N          3.66543       -0.38648       -1.70120
S          4.07732       -1.89094       -0.85124
H          3.25856       -0.63059       -2.63215
S          2.46164        0.56163       -0.80261
O          2.74985       -2.51435       -0.39098
O          4.48658       -2.84903       -1.98064
O          2.77808        0.35384        0.68694
O          1.13822       -0.20279       -0.96495
C          5.36045       -1.82293        0.43401
C          2.31755        2.31868       -1.23791
F          4.80524       -1.41834        1.63218
F          5.92446       -3.07471        0.59001
F          3.20444        3.05843       -0.47951
F          2.60864        2.48542       -2.57802
F          1.02891        2.75303       -0.99291
F          6.34075       -0.92638        0.05493
