9
	Energy:      10.7881221
C         -1.73835       -0.13168       -0.02764
O         -0.57418        0.65537       -0.12996
H         -1.78835       -0.88956       -0.84105
H         -2.61940        0.53162       -0.14799
H         -1.82162       -0.60400        0.97660
C          0.55614       -0.17224        0.02055
H          1.46433        0.45948       -0.06188
H          0.61358       -0.93180       -0.79080
H          0.58030       -0.64673        1.02693
