9
	Energy:       4.1390592
C         -0.77768       -0.19548        0.43025
C          0.45914        0.64578        0.70607
H         -0.75730       -1.11707        1.04996
H         -0.81355       -0.47930       -0.64304
H         -1.69036        0.38592        0.67959
O          1.60521       -0.09311        0.38965
H          0.47090        0.92107        1.78416
H          0.41423        1.56360        0.07854
H          2.37659        0.49917        0.58717
