8
	Energy:       0.1406274
C         -1.44291       -0.28031        0.43207
C          0.06227       -0.11992        0.30316
H         -1.68156       -0.88312        1.33352
H         -1.84514       -0.79448       -0.46615
H         -1.92137        0.71741        0.52470
H          0.54074       -1.11764        0.21052
H          0.46450        0.39425        1.20137
H          0.30092        0.48289       -0.59830
