6
	Energy:       3.7978787
C         -6.41274        1.02903       -0.03887
O         -5.07042        0.81699        0.29027
H         -6.67760        0.46678       -0.96049
H         -6.61181        2.11514       -0.16688
H         -7.04903        0.65553        0.78966
H         -4.54345        1.16458       -0.47537
