11
	Energy:       0.9868812
C          6.33050       -0.95393        0.76675
C          5.10714       -0.05044        0.64525
H          6.30916       -1.74026       -0.01771
H          6.35620       -1.43656        1.76703
H          7.25334       -0.34967        0.63961
C          3.81429       -0.84270        0.81413
H          5.10984        0.43621       -0.35390
H          5.15674        0.73906        1.42588
H          3.73669       -1.62654        0.03072
H          2.94422       -0.15919        0.72076
H          3.78373       -1.32286        1.81547
