12
	Energy:       5.0135568
C          3.44527       -1.74052       -0.35388
C          2.48804       -0.79565       -1.07485
H          4.40821       -1.78634       -0.90488
H          3.01458       -2.76338       -0.30491
H          3.64259       -1.37764        0.67739
C          1.14709       -0.70297       -0.34829
H          2.94865        0.21474       -1.12941
H          2.32216       -1.16763       -2.10932
O          0.30397        0.17206       -1.04366
H          1.31612       -0.31879        0.68293
H          0.68362       -1.71441       -0.30637
H         -0.54732        0.19674       -0.53413
